 # Hcp Hf with box vectors H1=[0001], H2=[2-310], H3=[-1-230].
  
       40320  atoms
           3  atom types
 
      0.000000000000      79.680000000000  xlo xhi
      0.000000000000     144.351134390000  ylo yhi
      0.000000000000      75.007049670000  zlo zhi
 
Masses
 
            1   47.86700000             # Ti
            2   178.49000000            # Hf
            3   91.22400000             # Zr
 
Atoms # atomic
 
         1    1        2.490000000000       6.873863886074      14.287057044282
         2    1        2.490000000000      14.091420605574       1.785881849259
         3    1        2.490000000000       4.811703998496       8.334116546659
         4    2        2.490000000000      12.029260717996      20.835291741682
         5    3        2.490000000000       6.873863886074       5.952940497624
         6    3        2.490000000000      14.091420605574      18.454115692647
         7    3        2.490000000000       1.718465610641      16.072938893541
         8    3        2.490000000000       8.936022330141       3.571764448588
         9    3        0.000000000000       2.062158444067      22.621173590941
        10    1        0.000000000000       9.279715163567      10.119998395918
        11    1        2.490000000000       3.780625498219      13.691762844506
        12    3        2.490000000000      10.998182217719       1.190588399553
        13    3        2.490000000000       3.780625498219       5.357646297847
        14    3        0.000000000000       3.093238387856      17.263527293094
        15    2        0.000000000000      10.310795107356       4.762352098071
        16    3        2.490000000000       2.749545554430      10.715292595694
        17    2        2.490000000000       9.967102273930      23.216467790718
        18    2        2.490000000000       6.873863886074      22.621173590941
        19    2        2.490000000000      14.091420605574      10.119998395918
        20    2        2.490000000000       1.718465610641       7.738822346882
        21    2        2.490000000000       8.936022330141      20.239997541906
        22    2        2.490000000000       1.718465610641      24.407056190271
        23    2        2.490000000000       8.936022330141      11.905880995247
        24    2        2.490000000000       3.780625498219      22.025879391165
        25    1        2.490000000000      10.998182217719       9.524704946212
        26    2        2.490000000000       5.842783942285      19.644703342129
        27    1        2.490000000000      13.060340661785       7.143528897176
        28    2        2.490000000000       0.687385666852       4.762352098071
        29    2        2.490000000000       7.904942386352      17.263527293094
        30    2        0.000000000000       4.124318331644      20.239997541906
        31    1        0.000000000000      11.341875051144       7.738822346882
        32    1        0.000000000000       6.186476775711      17.858821492871
        33    1        2.490000000000       0.687385666852      21.430585941459
        34    2        0.000000000000      13.404033495211       5.357646297847
        35    3        2.490000000000       7.904942386352       8.929410746435
        36    2        0.000000000000       1.031079943789       2.976470248812
        37    1        2.490000000000       2.749545554430      19.049409142353
        38    1        0.000000000000       8.248636663289      15.477645443835
        39    1        2.490000000000       9.967102273930       6.548234697400
        40    1        0.000000000000       6.186476775711       9.524704946212
        41    1        0.000000000000      13.404033495211      22.025879391165
        42    1        2.490000000000       4.811703998496      16.668233093318
        43    1        2.490000000000      12.029260717996       4.167058648365
        44    1        0.000000000000       1.031079943789      19.644703342129
        45    3        0.000000000000       8.248636663289       7.143528897176
        46    1        2.490000000000      10.998182217719      17.858821492871
        47    2        2.490000000000       5.842783942285       2.976470248812
        48    2        2.490000000000      13.060340661785      15.477645443835
        49    1        2.490000000000       0.687385666852      13.096468644729
        50    1        2.490000000000       7.904942386352       0.595294199776
        51    2        2.490000000000       2.749545554430       2.381176049035
        52    1        2.490000000000       9.967102273930      14.882351244059
        53    2        2.490000000000       4.811703998496       0.000000000000
        54    2        2.490000000000      12.029260717996      12.501175195023
        55    1        0.000000000000       5.155398275433      14.882351244059
        56    1        0.000000000000      12.372954994933       2.381176049035
        57    1        0.000000000000       5.155398275433       6.548234697400
        58    3        0.000000000000      12.372954994933      19.049409142353
        59    3        0.000000000000       0.000000000000      16.668233093318
        60    2        0.000000000000       7.217556719500       4.167058648365
        61    1        0.000000000000       2.062158444067      14.287057044282
        62    1        0.000000000000       9.279715163567       1.785881849259
        63    1        0.000000000000       4.124318331644       3.571764448588
        64    3        0.000000000000      11.341875051144      16.072938893541
        65    3        0.000000000000       6.186476775711       1.190588399553
        66    3        0.000000000000      13.404033495211      13.691762844506
        67    3        0.000000000000       3.093238387856       0.595294199776
        68    1        0.000000000000      10.310795107356      13.096468644729
        69    2        0.000000000000       0.000000000000       0.000000000000
        70    1        0.000000000000       7.217556719500      12.501175195023
        71    2        2.490000000000       5.842783942285      11.310586795471
        72    2        2.490000000000      13.060340661785      23.811761990494
        73    3        0.000000000000       4.124318331644      11.905880995247
        74    1        0.000000000000      11.341875051144      24.407056190271
        75    1        0.000000000000       1.031079943789      11.310586795471
        76    1        0.000000000000       8.248636663289      23.811761990494
        77    1        0.000000000000       3.093238387856       8.929410746435
        78    2        0.000000000000      10.310795107356      21.430585941459
        79    3        0.000000000000       5.155398275433      23.216467790718
        80    1        0.000000000000      12.372954994933      10.715292595694
        81    3        0.000000000000       0.000000000000       8.334116546659
        82    3        0.000000000000       7.217556719500      20.835291741682
        83    1        0.000000000000       2.062158444067       5.952940497624
        84    3        0.000000000000       9.279715163567      18.454115692647
        85    1        7.470000000000       6.873863886074      14.287057044282
        86    2        7.470000000000      14.091420605574       1.785881849259
        87    3        7.470000000000       4.811703998496       8.334116546659
        88    3        7.470000000000      12.029260717996      20.835291741682
        89    2        7.470000000000       6.873863886074       5.952940497624
        90    1        7.470000000000      14.091420605574      18.454115692647
        91    1        7.470000000000       1.718465610641      16.072938893541
        92    1        7.470000000000       8.936022330141       3.571764448588
        93    3        4.980000000000       2.062158444067      22.621173590941
        94    3        4.980000000000       9.279715163567      10.119998395918
        95    3        7.470000000000       3.780625498219      13.691762844506
        96    2        7.470000000000      10.998182217719       1.190588399553
        97    3        7.470000000000       3.780625498219       5.357646297847
        98    2        4.980000000000       3.093238387856      17.263527293094
        99    1        4.980000000000      10.310795107356       4.762352098071
       100    1        7.470000000000       2.749545554430      10.715292595694
       101    3        7.470000000000       9.967102273930      23.216467790718
       102    3        7.470000000000       6.873863886074      22.621173590941
       103    3        7.470000000000      14.091420605574      10.119998395918
       104    2        7.470000000000       1.718465610641       7.738822346882
       105    2        7.470000000000       8.936022330141      20.239997541906
       106    3        7.470000000000       1.718465610641      24.407056190271
       107    3        7.470000000000       8.936022330141      11.905880995247
       108    1        7.470000000000       3.780625498219      22.025879391165
       109    2        7.470000000000      10.998182217719       9.524704946212
       110    2        7.470000000000       5.842783942285      19.644703342129
       111    3        7.470000000000      13.060340661785       7.143528897176
       112    2        7.470000000000       0.687385666852       4.762352098071
       113    2        7.470000000000       7.904942386352      17.263527293094
       114    2        4.980000000000       4.124318331644      20.239997541906
       115    2        4.980000000000      11.341875051144       7.738822346882
       116    1        4.980000000000       6.186476775711      17.858821492871
       117    1        7.470000000000       0.687385666852      21.430585941459
       118    2        4.980000000000      13.404033495211       5.357646297847
       119    2        7.470000000000       7.904942386352       8.929410746435
       120    1        4.980000000000       1.031079943789       2.976470248812
       121    2        7.470000000000       2.749545554430      19.049409142353
       122    3        4.980000000000       8.248636663289      15.477645443835
       123    2        7.470000000000       9.967102273930       6.548234697400
       124    3        4.980000000000       6.186476775711       9.524704946212
       125    2        4.980000000000      13.404033495211      22.025879391165
       126    3        7.470000000000       4.811703998496      16.668233093318
       127    2        7.470000000000      12.029260717996       4.167058648365
       128    2        4.980000000000       1.031079943789      19.644703342129
       129    3        4.980000000000       8.248636663289       7.143528897176
       130    1        7.470000000000      10.998182217719      17.858821492871
       131    3        7.470000000000       5.842783942285       2.976470248812
       132    2        7.470000000000      13.060340661785      15.477645443835
       133    2        7.470000000000       0.687385666852      13.096468644729
       134    1        7.470000000000       7.904942386352       0.595294199776
       135    2        7.470000000000       2.749545554430       2.381176049035
       136    1        7.470000000000       9.967102273930      14.882351244059
       137    2        7.470000000000       4.811703998496       0.000000000000
       138    2        7.470000000000      12.029260717996      12.501175195023
       139    2        4.980000000000       5.155398275433      14.882351244059
       140    2        4.980000000000      12.372954994933       2.381176049035
       141    3        4.980000000000       5.155398275433       6.548234697400
       142    2        4.980000000000      12.372954994933      19.049409142353
       143    3        4.980000000000       0.000000000000      16.668233093318
       144    2        4.980000000000       7.217556719500       4.167058648365
       145    3        4.980000000000       2.062158444067      14.287057044282
       146    2        4.980000000000       9.279715163567       1.785881849259
       147    1        4.980000000000       4.124318331644       3.571764448588
       148    1        4.980000000000      11.341875051144      16.072938893541
       149    1        4.980000000000       6.186476775711       1.190588399553
       150    3        4.980000000000      13.404033495211      13.691762844506
       151    1        4.980000000000       3.093238387856       0.595294199776
       152    1        4.980000000000      10.310795107356      13.096468644729
       153    2        4.980000000000       0.000000000000       0.000000000000
       154    1        4.980000000000       7.217556719500      12.501175195023
       155    1        7.470000000000       5.842783942285      11.310586795471
       156    3        7.470000000000      13.060340661785      23.811761990494
       157    2        4.980000000000       4.124318331644      11.905880995247
       158    3        4.980000000000      11.341875051144      24.407056190271
       159    1        4.980000000000       1.031079943789      11.310586795471
       160    1        4.980000000000       8.248636663289      23.811761990494
       161    3        4.980000000000       3.093238387856       8.929410746435
       162    3        4.980000000000      10.310795107356      21.430585941459
       163    3        4.980000000000       5.155398275433      23.216467790718
       164    2        4.980000000000      12.372954994933      10.715292595694
       165    3        4.980000000000       0.000000000000       8.334116546659
       166    1        4.980000000000       7.217556719500      20.835291741682
       167    3        4.980000000000       2.062158444067       5.952940497624
       168    3        4.980000000000       9.279715163567      18.454115692647
       169    2       12.450000000000       6.873863886074      14.287057044282
       170    1       12.450000000000      14.091420605574       1.785881849259
       171    1       12.450000000000       4.811703998496       8.334116546659
       172    2       12.450000000000      12.029260717996      20.835291741682
       173    2       12.450000000000       6.873863886074       5.952940497624
       174    2       12.450000000000      14.091420605574      18.454115692647
       175    1       12.450000000000       1.718465610641      16.072938893541
       176    1       12.450000000000       8.936022330141       3.571764448588
       177    1        9.960000000000       2.062158444067      22.621173590941
       178    1        9.960000000000       9.279715163567      10.119998395918
       179    1       12.450000000000       3.780625498219      13.691762844506
       180    2       12.450000000000      10.998182217719       1.190588399553
       181    2       12.450000000000       3.780625498219       5.357646297847
       182    2        9.960000000000       3.093238387856      17.263527293094
       183    3        9.960000000000      10.310795107356       4.762352098071
       184    2       12.450000000000       2.749545554430      10.715292595694
       185    3       12.450000000000       9.967102273930      23.216467790718
       186    3       12.450000000000       6.873863886074      22.621173590941
       187    3       12.450000000000      14.091420605574      10.119998395918
       188    2       12.450000000000       1.718465610641       7.738822346882
       189    2       12.450000000000       8.936022330141      20.239997541906
       190    3       12.450000000000       1.718465610641      24.407056190271
       191    3       12.450000000000       8.936022330141      11.905880995247
       192    3       12.450000000000       3.780625498219      22.025879391165
       193    1       12.450000000000      10.998182217719       9.524704946212
       194    3       12.450000000000       5.842783942285      19.644703342129
       195    3       12.450000000000      13.060340661785       7.143528897176
       196    3       12.450000000000       0.687385666852       4.762352098071
       197    3       12.450000000000       7.904942386352      17.263527293094
       198    3        9.960000000000       4.124318331644      20.239997541906
       199    2        9.960000000000      11.341875051144       7.738822346882
       200    2        9.960000000000       6.186476775711      17.858821492871
       201    3       12.450000000000       0.687385666852      21.430585941459
       202    3        9.960000000000      13.404033495211       5.357646297847
       203    1       12.450000000000       7.904942386352       8.929410746435
       204    1        9.960000000000       1.031079943789       2.976470248812
       205    3       12.450000000000       2.749545554430      19.049409142353
       206    3        9.960000000000       8.248636663289      15.477645443835
       207    1       12.450000000000       9.967102273930       6.548234697400
       208    1        9.960000000000       6.186476775711       9.524704946212
       209    2        9.960000000000      13.404033495211      22.025879391165
       210    2       12.450000000000       4.811703998496      16.668233093318
       211    3       12.450000000000      12.029260717996       4.167058648365
       212    3        9.960000000000       1.031079943789      19.644703342129
       213    3        9.960000000000       8.248636663289       7.143528897176
       214    2       12.450000000000      10.998182217719      17.858821492871
       215    2       12.450000000000       5.842783942285       2.976470248812
       216    3       12.450000000000      13.060340661785      15.477645443835
       217    2       12.450000000000       0.687385666852      13.096468644729
       218    1       12.450000000000       7.904942386352       0.595294199776
       219    1       12.450000000000       2.749545554430       2.381176049035
       220    2       12.450000000000       9.967102273930      14.882351244059
       221    1       12.450000000000       4.811703998496       0.000000000000
       222    2       12.450000000000      12.029260717996      12.501175195023
       223    3        9.960000000000       5.155398275433      14.882351244059
       224    1        9.960000000000      12.372954994933       2.381176049035
       225    3        9.960000000000       5.155398275433       6.548234697400
       226    1        9.960000000000      12.372954994933      19.049409142353
       227    3        9.960000000000       0.000000000000      16.668233093318
       228    1        9.960000000000       7.217556719500       4.167058648365
       229    2        9.960000000000       2.062158444067      14.287057044282
       230    3        9.960000000000       9.279715163567       1.785881849259
       231    2        9.960000000000       4.124318331644       3.571764448588
       232    1        9.960000000000      11.341875051144      16.072938893541
       233    1        9.960000000000       6.186476775711       1.190588399553
       234    1        9.960000000000      13.404033495211      13.691762844506
       235    2        9.960000000000       3.093238387856       0.595294199776
       236    3        9.960000000000      10.310795107356      13.096468644729
       237    3        9.960000000000       0.000000000000       0.000000000000
       238    3        9.960000000000       7.217556719500      12.501175195023
       239    3       12.450000000000       5.842783942285      11.310586795471
       240    2       12.450000000000      13.060340661785      23.811761990494
       241    3        9.960000000000       4.124318331644      11.905880995247
       242    1        9.960000000000      11.341875051144      24.407056190271
       243    3        9.960000000000       1.031079943789      11.310586795471
       244    3        9.960000000000       8.248636663289      23.811761990494
       245    2        9.960000000000       3.093238387856       8.929410746435
       246    1        9.960000000000      10.310795107356      21.430585941459
       247    3        9.960000000000       5.155398275433      23.216467790718
       248    3        9.960000000000      12.372954994933      10.715292595694
       249    3        9.960000000000       0.000000000000       8.334116546659
       250    3        9.960000000000       7.217556719500      20.835291741682
       251    3        9.960000000000       2.062158444067       5.952940497624
       252    1        9.960000000000       9.279715163567      18.454115692647
       253    2       17.430000000000       6.873863886074      14.287057044282
       254    2       17.430000000000      14.091420605574       1.785881849259
       255    2       17.430000000000       4.811703998496       8.334116546659
       256    2       17.430000000000      12.029260717996      20.835291741682
       257    1       17.430000000000       6.873863886074       5.952940497624
       258    1       17.430000000000      14.091420605574      18.454115692647
       259    1       17.430000000000       1.718465610641      16.072938893541
       260    3       17.430000000000       8.936022330141       3.571764448588
       261    2       14.940000000000       2.062158444067      22.621173590941
       262    2       14.940000000000       9.279715163567      10.119998395918
       263    1       17.430000000000       3.780625498219      13.691762844506
       264    2       17.430000000000      10.998182217719       1.190588399553
       265    2       17.430000000000       3.780625498219       5.357646297847
       266    3       14.940000000000       3.093238387856      17.263527293094
       267    1       14.940000000000      10.310795107356       4.762352098071
       268    3       17.430000000000       2.749545554430      10.715292595694
       269    2       17.430000000000       9.967102273930      23.216467790718
       270    3       17.430000000000       6.873863886074      22.621173590941
       271    1       17.430000000000      14.091420605574      10.119998395918
       272    1       17.430000000000       1.718465610641       7.738822346882
       273    1       17.430000000000       8.936022330141      20.239997541906
       274    1       17.430000000000       1.718465610641      24.407056190271
       275    3       17.430000000000       8.936022330141      11.905880995247
       276    1       17.430000000000       3.780625498219      22.025879391165
       277    3       17.430000000000      10.998182217719       9.524704946212
       278    2       17.430000000000       5.842783942285      19.644703342129
       279    1       17.430000000000      13.060340661785       7.143528897176
       280    3       17.430000000000       0.687385666852       4.762352098071
       281    2       17.430000000000       7.904942386352      17.263527293094
       282    2       14.940000000000       4.124318331644      20.239997541906
       283    2       14.940000000000      11.341875051144       7.738822346882
       284    2       14.940000000000       6.186476775711      17.858821492871
       285    2       17.430000000000       0.687385666852      21.430585941459
       286    2       14.940000000000      13.404033495211       5.357646297847
       287    3       17.430000000000       7.904942386352       8.929410746435
       288    2       14.940000000000       1.031079943789       2.976470248812
       289    3       17.430000000000       2.749545554430      19.049409142353
       290    3       14.940000000000       8.248636663289      15.477645443835
       291    3       17.430000000000       9.967102273930       6.548234697400
       292    1       14.940000000000       6.186476775711       9.524704946212
       293    2       14.940000000000      13.404033495211      22.025879391165
       294    3       17.430000000000       4.811703998496      16.668233093318
       295    2       17.430000000000      12.029260717996       4.167058648365
       296    3       14.940000000000       1.031079943789      19.644703342129
       297    2       14.940000000000       8.248636663289       7.143528897176
       298    2       17.430000000000      10.998182217719      17.858821492871
       299    1       17.430000000000       5.842783942285       2.976470248812
       300    3       17.430000000000      13.060340661785      15.477645443835
       301    2       17.430000000000       0.687385666852      13.096468644729
       302    2       17.430000000000       7.904942386352       0.595294199776
       303    2       17.430000000000       2.749545554430       2.381176049035
       304    3       17.430000000000       9.967102273930      14.882351244059
       305    2       17.430000000000       4.811703998496       0.000000000000
       306    3       17.430000000000      12.029260717996      12.501175195023
       307    3       14.940000000000       5.155398275433      14.882351244059
       308    3       14.940000000000      12.372954994933       2.381176049035
       309    2       14.940000000000       5.155398275433       6.548234697400
       310    1       14.940000000000      12.372954994933      19.049409142353
       311    3       14.940000000000       0.000000000000      16.668233093318
       312    3       14.940000000000       7.217556719500       4.167058648365
       313    1       14.940000000000       2.062158444067      14.287057044282
       314    1       14.940000000000       9.279715163567       1.785881849259
       315    1       14.940000000000       4.124318331644       3.571764448588
       316    2       14.940000000000      11.341875051144      16.072938893541
       317    2       14.940000000000       6.186476775711       1.190588399553
       318    1       14.940000000000      13.404033495211      13.691762844506
       319    1       14.940000000000       3.093238387856       0.595294199776
       320    1       14.940000000000      10.310795107356      13.096468644729
       321    3       14.940000000000       0.000000000000       0.000000000000
       322    3       14.940000000000       7.217556719500      12.501175195023
       323    3       17.430000000000       5.842783942285      11.310586795471
       324    1       17.430000000000      13.060340661785      23.811761990494
       325    1       14.940000000000       4.124318331644      11.905880995247
       326    1       14.940000000000      11.341875051144      24.407056190271
       327    1       14.940000000000       1.031079943789      11.310586795471
       328    1       14.940000000000       8.248636663289      23.811761990494
       329    1       14.940000000000       3.093238387856       8.929410746435
       330    3       14.940000000000      10.310795107356      21.430585941459
       331    2       14.940000000000       5.155398275433      23.216467790718
       332    1       14.940000000000      12.372954994933      10.715292595694
       333    3       14.940000000000       0.000000000000       8.334116546659
       334    1       14.940000000000       7.217556719500      20.835291741682
       335    3       14.940000000000       2.062158444067       5.952940497624
       336    3       14.940000000000       9.279715163567      18.454115692647
       337    1       22.410000000000       6.873863886074      14.287057044282
       338    3       22.410000000000      14.091420605574       1.785881849259
       339    3       22.410000000000       4.811703998496       8.334116546659
       340    2       22.410000000000      12.029260717996      20.835291741682
       341    2       22.410000000000       6.873863886074       5.952940497624
       342    2       22.410000000000      14.091420605574      18.454115692647
       343    3       22.410000000000       1.718465610641      16.072938893541
       344    1       22.410000000000       8.936022330141       3.571764448588
       345    2       19.920000000000       2.062158444067      22.621173590941
       346    1       19.920000000000       9.279715163567      10.119998395918
       347    2       22.410000000000       3.780625498219      13.691762844506
       348    2       22.410000000000      10.998182217719       1.190588399553
       349    2       22.410000000000       3.780625498219       5.357646297847
       350    2       19.920000000000       3.093238387856      17.263527293094
       351    3       19.920000000000      10.310795107356       4.762352098071
       352    1       22.410000000000       2.749545554430      10.715292595694
       353    1       22.410000000000       9.967102273930      23.216467790718
       354    1       22.410000000000       6.873863886074      22.621173590941
       355    1       22.410000000000      14.091420605574      10.119998395918
       356    3       22.410000000000       1.718465610641       7.738822346882
       357    3       22.410000000000       8.936022330141      20.239997541906
       358    3       22.410000000000       1.718465610641      24.407056190271
       359    2       22.410000000000       8.936022330141      11.905880995247
       360    1       22.410000000000       3.780625498219      22.025879391165
       361    2       22.410000000000      10.998182217719       9.524704946212
       362    1       22.410000000000       5.842783942285      19.644703342129
       363    2       22.410000000000      13.060340661785       7.143528897176
       364    1       22.410000000000       0.687385666852       4.762352098071
       365    3       22.410000000000       7.904942386352      17.263527293094
       366    2       19.920000000000       4.124318331644      20.239997541906
       367    1       19.920000000000      11.341875051144       7.738822346882
       368    1       19.920000000000       6.186476775711      17.858821492871
       369    1       22.410000000000       0.687385666852      21.430585941459